     414
 i =     5001, time =     2500.500, E =     -2900.6527016628
 Zr        -0.8073912746       -6.1587575307        6.7651139315
 Zr         6.8355439691        4.3740829874       -0.5375801662
 Zr        -0.4774381643       10.0364066274        6.8871440313
 Zr        -2.4567103975       -8.7130529225       -6.3114217852
 Zr         4.8579789633        1.9696147534       -2.3754866525
 Zr         6.7633394173       -0.6135752579       -0.5964099095
 Zr         5.1360032210        1.8387520919        1.3481277157
 Zr        -2.4390551687       -8.8062924941        5.0033071705
 Zr        -6.0703237100        1.8649489239       -2.4551757281
 Zr         1.0637061397       -8.5719796857       -6.2858169518
 Zr        -5.9748264240        1.8115827654        1.0717113362
 Zr         1.0201742269       -8.4557692082        4.9519227897
  O        -0.5702958476       11.0759739888        4.8345694978
  O        -3.2027663435       -6.8511613951       -5.4154164779
  O        -5.5798109349        4.0002778333        2.1562668416
  O        -5.8451119320        3.2046783295       -0.6196775807
  O        -2.1993660307        8.8474574778        5.5976820162
  O        -4.5785498743       -9.2285893947        5.7405846765
  O        -4.6530524494       -9.0828823550       -6.9494406890
  O         3.1483944122       -8.3991138869        5.6232912880
  O         3.1850310038       -8.7023313422       -7.0507678627
  O        -3.1144756373       -7.0094766954        4.1046511411
  O        -2.0539756120       -5.3128960119        5.1894163908
  O        -6.2884346087       -1.8954069020        0.4639104637
  O        -5.0178358780       -0.4231413494        1.6150465120
  O         1.2628490065       -7.0631893115        6.7703331596
  O         2.1287047338       10.6999829675        4.3731269761
  O         1.9373265446       -6.3975739160       -5.8014310688
  O         0.5114157806       -4.8351673893       -6.6965976268
  O         6.9071447830        2.9129328456        1.0198226419
  O        -0.4785143091       11.1609175257       -6.1095231359
  O        -5.4798043459        3.9947704603       -3.3670578481
  O        -6.3702953909        0.7049114996       -0.6218197780
  O        -6.5654823333        5.6753815049       -2.1774616635
  O         5.4390860379       -1.6731761081        0.7463834662
  O         1.1343781118        9.0608155483       -6.8994200237
  O        -0.8093445667       -7.5446770387       -6.6949088020
  O        -3.2171150210       10.4514655593        4.2979614946
  O        -6.4534262945        5.4947197858        0.6848650986
  O         4.6454495629        4.0806170246        2.3566300396
  O        -1.6526212427       -8.7493263218        2.7181703602
  O        -6.7574389451        1.7438780024       -4.4641662462
  O        -1.6420119364        8.8770174756       -6.7138743699
  O        -2.0194631723       11.4254228984        6.9700482764
  O         4.1231773582       -0.0434100765       -3.1860401561
  O         5.2658242800        5.5104969879       -1.8138673918
  O        -0.7215371815       -7.5770933160        5.2615769607
  O         4.3812113955       -0.2028387807        2.0838960146
  O         0.9842025449        9.0889569105        5.5274487541
  O         4.8367516417        3.2080240585       -0.4555123262
  O         1.9802496687       10.6394674248       -5.4421175745
  O        -2.8564140418       -7.3825076539        6.7491465556
  O         5.5718135906        1.8844965574       -4.4560648738
  O        -2.2548204242       -5.3000660411       -6.8290742998
  O         4.5572739247        4.0568139993       -3.4125890940
  O         6.6586627363        0.3989430330       -2.5633576282
  O         5.4512899251        5.6015735423        0.8537497104
  O         1.5457330908       -6.5313666046        4.1053585406
  O        -1.7045240436       -8.6657567092       -4.0828446851
  O         5.2060289009        0.7583690729       -0.4337995111
  O         6.9441480788        0.3687487767        1.4894700497
  O         0.5457425237       -8.3844460860       -4.1754248649
  O        -6.4509234548        1.8824437992        3.5686633890
  O        -3.0400939024       10.4091471308       -5.8173607979
  O         0.9673329742       11.5688489829        6.8263924384
  O         5.8519279510        1.7039586127        3.4686113827
  O         3.0490747569        2.2767425370        1.3131495277
  O         2.9108004230        2.1339526811       -2.1989881882
  O        -3.9400893993        2.1355979912        1.0659085687
  O        -3.8439864353        1.9575364643       -2.3049792979
  O        -5.2647363011       -0.1850627187       -3.3028494040
  O         5.0489632378       -1.6380800319       -1.8027706483
  O         0.5798259172       -8.3599304703        2.7657202018
  O         6.8059526118        2.9372442373       -1.9586172645
  O        -6.4689711134       -1.7156550401       -2.0161721305
  O         0.5926593515       -4.9148693807        5.4375519349
  C        -3.6723085603       -4.7767060590        3.5630249772
  C        -2.9582269781       -5.7415942917        4.3772690273
  C        -4.3147397980       -5.0577447302        2.3539448231
  C        -4.8458317115       -2.7595584178        2.0827466440
  C        -4.2316470779       -2.4745575615        3.2663594659
  C        -5.4016037803       -1.6063014499        1.3067552652
  C        -3.6147181305       -3.4910942629        4.0271742925
  C        -4.8714334622       -4.0904329670        1.5668581453
  C        -5.4504218803        7.5398574416       -3.9742926163
  C        -2.9709131137        6.8775020699       -5.1552551406
  C        -3.4367814549        6.8959984879        4.0774104218
  C        -7.3297301179       -8.9906994577       -7.0179706542
  C         5.9095028490       -8.8188905436       -7.0695142366
  C        -6.6803014928       -9.4024010543        6.7863966869
  C        -5.1870015344       -9.2362616638        6.8900045813
  C         5.7405837378       -9.8564995635        5.6751625031
  C        -7.4725032053       -9.8891071715        5.6587694752
  C         5.1415510374       -9.1898652495        6.7482005205
  C         3.7080176829       -8.7654638251        6.7339317223
  C         2.6317239447        8.4294376442        3.9863498258
  C         3.9941353156       -3.5161852743       -3.5668517712
  C         5.7168819631        1.4331064204       -7.2870718266
  C         6.7837665693        1.8717538967       -6.5288265160
  C         3.6991496568       -2.4758637473        2.2364570668
  C         5.8063441206        1.3427113048        6.2635208648
  C         4.2950086855       -1.2738810997       -2.7269840346
  C        -5.7924478404        5.1640623880        1.7699470819
  C         4.7776446544        5.2766765694        1.8852597882
  C        -3.3536865598       -3.2449478312       -5.2501106606
  C        -0.5741498992       -8.5266362040        2.1909982044
  C        -3.0407831335       -5.6388091952       -5.8573533855
  C         2.9280966306        7.1877591620        4.6577945162
  C        -3.4602426387        8.1703216649       -5.2114877260
  C         0.3961143070       -7.7490573945        0.0313622264
  C        -4.8101644257       -4.8791248571       -4.1866704829
  C         3.4721045363       -2.2601426942       -3.4956278040
  C         3.1631600884        8.6404593482        2.6982451218
  C        -5.6937166485       -1.3721959229       -2.9775241158
  C         3.9715449111        6.3633433903        2.5544423426
  C        -0.5586740377       -8.3084490144       -2.0773127158
  C        -1.6563196564       -8.9190908597       -1.4035859028
  C         6.9724228754        1.7921700426        4.0753001657
  C        -3.6730312468        5.9096827463       -4.3789978937
  C        -1.6749464390       -9.0380492152       -0.0640935990
  C         2.2516618266       -1.9063033824       -4.1356689696
  C         3.6005230158        6.2248101697       -5.1024772098
  C        -2.6414942370        9.1988211956       -5.9387450847
  C         4.1876158047        6.3658810505       -3.8108232433
  C         1.8804041884       -2.9339443394        3.7706731528
  C         1.4945727404       -5.2145315014       -5.9403555277
  C         0.4691144550       -7.7048389290       -1.3787559478
  C        -3.9898233400        8.1714150405        4.1954580394
  C        -4.8975300499        6.2185060770       -3.8230777102
  C        -5.7393294161        7.6000255900        2.5705061235
  C         4.7303643649        5.2496981699       -2.9780104255
  C        -6.6167306080        2.3195918144        6.3807355300
  C        -3.0427971853        9.2325405838        4.7494585920
  C        -3.7619428478       -4.5722567662       -5.0764869989
  C         3.1450416960       -4.7583992660        2.7872362509
  C        -4.0790119005        5.9559396048        3.2603766369
  C         1.8328416450        9.4856869047        4.6290489285
  C        -5.1334588260        8.4789479435        3.4604942565
  C        -5.2526303145        6.2667593069        2.5625211634
  C         6.8906851357        1.8739711884        5.5987059911
  C         3.6941266048        6.2177154449        3.9508399631
  C        -5.4625860913       -3.8336006387       -3.5820873199
  C         2.9546193665        7.2017048586       -5.8199136965
  C         4.5823871694       -1.3991911243        1.6163335819
  C         2.0955099518       -4.3237557631        3.5724595847
  C         3.0797075780        8.5960394682       -3.8251797294
  C        -5.6932943635        5.1919507875       -3.0068725901
  C         3.9233889900       -3.8314344056        2.0934950994
  C         3.8862879338        7.6579369717       -3.2192135394
  C        -4.0106286539       -2.1713515870       -4.6119225050
  C        -0.5836280242       -8.5008909262       -3.5826264638
  C        -4.7021134374        8.5567237748       -4.6708441236
  C         1.5186588083       -2.8943958495       -4.8259766277
  C         1.8663407997        9.4624144517       -5.8952845575
  C         1.3671947510       -5.2828937218        4.4473718550
  C         3.8170005801        7.6116671921        1.9678932716
  C         3.2846508234       -4.5043031912       -4.2739725427
  C         6.7007278841        1.8601035074       -5.0262376081
  C        -5.0907831611       -2.4643071459       -3.7852688473
  C        -6.6263665721        2.2335412763       -7.1838618677
  C         2.6881919888       -2.0131949098        3.0850657292
  C         2.1307386587       -4.1992201465       -5.0020373378
  C        -0.5804785614       -8.4381358329        0.6764154218
  C         2.6372372333        8.3786829879       -5.1727275065
  H         2.5146107853        3.0547532191       -2.1798697924
  H         2.4356449519        2.8879110639        1.7988659652
  H        -3.2294307680        2.2724603931       -1.5859482908
  H        -3.3050306585        1.4290532554        0.7308065367
  H         2.3869531084        1.7651156133        0.5847407815
  H        -3.0352177977        1.4089355922       -2.9508578085
  H        -4.2045703804       -6.0789308120        2.0291733791
  H        -4.1891976575       -1.4428692693        3.5873669182
  H        -3.0537675734       -3.2546345661        4.9348803990
  H        -5.2439727687       -4.3837360540        0.5833403694
  H         3.5221330549       -5.7844664471        2.7401573511
  H         4.8500942733       -4.1530071577        1.5826233190
  H        -2.5816997965       -3.0879955636       -6.0211788970
  H         3.0885066613        9.6421751641        2.2583919485
  H        -5.4831334716        9.5017823235        3.5253936524
  H         6.8757141884       -0.1534093240        2.3067201767
  H        -6.7683468550       -8.6740855599       -6.1384928339
  H         5.4055288318       -8.3920367209       -6.2857648857
  H         5.0501412493      -10.1716466217        4.8506675672
  H        -6.9721158516      -10.3139609828        4.7796960586
  H         4.2281174681        7.6919243293        0.9536146787
  H        -2.3812615935       -9.3914576937       -2.1062879329
  H        -6.5314061429        7.9516309659        1.9254521961
  H        -5.7073084702        2.5922389664        5.7993626261
  H         2.7086600396        6.9910196449        5.7285938769
  H         4.8806126957        1.0526954914       -6.6428488973
  H        -5.0824360088       -5.9291190012       -4.0300098303
  H        -6.3335623846        7.8742512958       -3.4924951407
  H        -0.3632014281       10.4733664074        4.0936556384
  H         4.8916202391       -3.7749524774       -3.0613859478
  H         3.6859898406       -5.5217402255       -4.4098978925
  H         4.1580348125        7.8770714997       -2.2096552531
  H        -3.2130460385        4.9668481521       -4.1692207777
  H        -6.2501719777       -3.9947538036       -2.8224494007
  H         0.5936225091       -2.6771830932       -5.3786673074
  H         3.6647687981        5.2001228503       -5.5389721977
  H         1.3136623589       -7.1937118154       -1.8071952586
  H         1.0636451842       -2.6493721923        4.4165647175
  H         6.6228647925       -0.2119225761       -3.3514160746
  H         1.2409337609       -7.4378424310        0.6526510782
  H         5.0123783531        0.8988947736        5.6446301002
  H         2.6685583772       -0.9295822600        3.2029157148
  H         4.1423180149        5.3799308797        4.4802027146
  H        -3.6895432785       -1.1341922458       -4.7210823885
  H        -5.6872635138        2.4885859580       -6.6373534468
  H         2.6761784294        6.9999027895       -6.8408455953
  H        -1.9615569704        6.6673404792       -5.6740778986
  H         2.0548862389       -0.8353528680       -4.0206849453
  H        -3.6421155377        5.0123883244        3.1131027326
  H        -4.9589333588        9.6811489308       -4.6607033567
  H         2.7929500167        9.5248174948       -3.2920786549
  H        -0.3879740067       10.5329561038       -5.3831631579
  H        -2.4790734523        6.6998683702        4.5538762222
  H        -2.5571273209       -9.4495722013        0.4145769158
  H        -3.6104642279       -6.8022238039        6.5138341471
  H         2.0466117206       -6.4669878987        6.7396386317
  H         3.9459843588        3.5744255378       -0.3619311091
  H        -5.0171519777        3.7426129623       -0.6914318524
  C         2.1783421596        5.7422733330       -0.6370441717
  O         2.0915531006        4.3910838568       -1.0300096081
  H         1.1820739526        4.1365082229       -1.0148001972
  C        -2.7469233570       -1.9699320477       -0.9512281001
  O        -1.7366182642       -1.1324283367       -1.6028126417
  H        -2.2856346846       -0.5707003384       -2.2274195032
  C         4.7169853808       -5.0894833034        7.0934486486
  O         3.5757570077       -4.4840954097        6.5027229741
  H         2.9270618299       -4.2110603544        7.1663233973
  C        -8.1379166784       -6.7770751075        3.8747038980
  O        -6.7705391524       -6.5749188345        4.0433677324
  H        -6.3005288544       -7.3381002780        3.7175004250
  C         0.3423060535        5.5275195932       -3.6748742465
  O         1.0029493788        4.1946745594       -3.8049947542
  H         1.9283306986        4.3994544511       -4.0657480788
  C         6.7378840577       -6.2304237980       -0.1396872489
  O         6.9275262342       -6.7608929515       -1.4343490985
  H         7.8024066024       -6.4214296282       -1.7211224512
  C        -1.7279977660       -0.3766109650        2.0020963948
  O        -1.6343358860        0.5337005730        0.9076577876
  H        -1.4999828089       -0.0209484572        0.0299552820
  C        -0.6455902629        5.4187679030        7.1586120006
  O         0.0366923902        6.2384186707        6.1399823703
  H         0.4302481461        7.0562672091        6.5337483974
  C        -5.1576466150       -9.2687270860        1.8234922739
  O        -5.8539107078       -9.1511341399        3.0617033211
  H        -5.2339284141       -9.4701146369        3.7419333815
  C        -5.0939091847       -0.3921374542        6.0246303664
  O        -4.4183122415        0.6441519626        5.1740205608
  H        -4.8335957855        0.6798555489        4.2952997719
  C         0.0151038019        8.8471626614        1.3746314877
  O         0.2068517869        9.5057232626        0.1326472872
  H        -0.2033036665        9.0293665376       -0.6074864307
  C        -5.6723609037       -4.5659315986        6.8494760540
  O        -5.0070112375       -5.5156701613        5.9786284195
  H        -5.6478504604       -5.9104523746        5.2895990170
  C        -3.0217559163        2.2303262035       -6.6960769453
  O        -2.2472691520        1.0934509291       -6.1426749676
  H        -1.3163682160        1.1846023505       -6.4847745327
  C         6.1476828176       -9.7417154260       -2.8461709873
  O         7.5138002797      -10.2225051475       -2.7257765075
  H         7.5190117842      -11.0769229312       -2.1564838877
  C         1.6043973345       -0.4306118887       -0.3126905771
  O         1.4881958839        0.9965131130       -0.3649616824
  H         1.9240637554        1.3115445359       -1.2174954998
  C        -7.1000178549       -1.1955470576       -5.7637689285
  O        -8.1970584444       -1.1712651431       -4.8859283921
  H        -9.0448812910       -1.4588303533       -5.3719155486
  C         9.8022651417       -8.0054533153       12.9638724468
  O        10.5800742469       -6.8323433531       13.2449385755
  H        11.4956833058       -6.9958891287       13.0228534770
  C         0.5307897865        5.0083237758        3.3672764986
  O         0.9591958610        3.8740333272        2.6260300510
  H         1.1081023658        3.1424912798        3.2850755428
  C         6.7598483946        7.7616451602       -8.8322632661
  O         5.5850985602        7.3010014156       -8.1996363921
  H         5.5887595930        7.2171569125       -7.2537306859
  C        -8.4586387320        8.9518527111        0.0457811928
  O        -7.2426844752        9.6549518491        0.0959617766
  H        -6.8875586783        9.6281452736        0.9594281097
  C        -1.1389829013        3.3926627829        0.0214635913
  O        -2.4621930380        3.3999252004       -0.5409175346
  H        -2.9964000527        3.0818486680        0.2471192032
  C       -11.1661768553       11.0304022350       -0.3280011633
  O       -11.5899231518        9.6419866916       -0.6123862602
  H       -12.4754658678        9.5671915687       -0.2216104392
  C        -0.5284692334       -1.6038453248       -8.5189980700
  O         0.8577724204       -1.5888176702       -8.0221148796
  H         1.0198875903       -0.6635876164       -7.7922327405
  C         0.5978207160        0.7029605051        3.9451081962
  O         0.4761513788        1.4023168763        5.2343117039
  H        -0.4758430478        1.7586364637        5.1996967732
  C         1.4652797136        1.4841410213       -6.1494957954
  O         0.3784257941        1.3606677884       -7.0746897921
  H         0.6830220576        1.4290422515       -8.0297586456
  C         3.9421153757       -1.3122161419        7.6069206902
  O         4.4325335757       -2.3129768591        8.4868019763
  H         3.6496530949       -2.8482888383        8.8405841452
  C         2.8111390136        3.6790015911       -8.8133878415
  O         2.9430008349        2.8883077101       -9.9793474533
  H         3.5548536067        3.3764494827      -10.5881568151
  C         0.1769381428       -4.1462719135        0.4802124153
  O         1.2057716089       -3.9482546940       -0.5126164730
  H         0.7568163691       -4.1287319363       -1.3594755547
  C        -4.1999021372        8.2807401430       -0.2302745682
  O        -3.5530797465        8.6466161364       -1.5023441084
  H        -3.9777713690        7.9918981887       -2.1412959102
  C        -2.2356330856        2.7366587262        3.7592398289
  O        -1.9417875300        1.9214595247        4.9586343598
  H        -2.7328544287        1.5165401666        5.2749854694
  C        -0.7520103645        9.0999782718       -3.2721126196
  O        -0.9686176784        8.3193237341       -2.0395111663
  H        -1.9389349541        8.3737574338       -1.8409235239
  C        -0.8733001492        1.7977430805       -3.1673555467
  O        -2.0228043263        1.0615831156       -3.6731199677
  H        -2.1430033585        1.0240721074       -4.6610378595
  H        -9.2020146479        9.4524548204       -0.6288275971
  H        -8.2796267763        7.9174709156       -0.2868708418
  H        -8.8336369435        8.8300318828        1.0212425248
  H        -5.2899930287        8.2071775472       -0.2960107602
  H        -3.8137675410        7.3142415402        0.1123871283
  H        -3.8698520772        9.0970083251        0.4432796644
  H       -11.0363837313       11.0878399232        0.7936304631
  H       -10.2398762376       11.1530417720       -0.7602711112
  H       -11.8588219196       11.8551375539       -0.4841181203
  H         0.5211942549        9.4271406155        2.1989106748
  H        -1.0852602730        8.7350155359        1.6868821354
  H         0.4101054295        7.8282812843        1.3676579535
  H        -0.7647006231        8.4089276384       -4.1492659100
  H        -1.4128761228        9.9807341278       -3.4221087950
  H         0.3178130098        9.5065499042       -3.3137514552
  H         1.5360288251        5.9188890429        0.1832345543
  H         3.2215435479        5.9690338689       -0.3963673319
  H         1.8822211919        6.4736568861       -1.3761656818
  H         3.6061803997        3.5790526441       -8.0943342898
  H         2.8969769685        4.7741669014       -9.0161752326
  H         1.8244193182        3.4743027625       -8.2892960080
  H         6.5026376140        8.5225250718       -9.6114412550
  H         7.3883156139        8.2849766440       -8.1677199606
  H         7.3471251140        6.9664737934       -9.3549879606
  H        -0.8318128045        4.4107695894        0.2896498727
  H        -1.0251171818        2.8941484268        0.9281687692
  H        -0.4658821917        3.0376504548       -0.7532969779
  H        -0.0146038663        5.1401973576        7.9965491288
  H        -1.5583819066        5.7611998348        7.5796964720
  H        -0.8557534195        4.5696161582        6.5447819023
  H        -0.7467470384        5.3180378541       -3.5508124427
  H         0.6498182644        6.1364503805       -2.8250916976
  H         0.3055264347        6.1265082775       -4.6416505878
  H         0.4534478052        5.9021148589        2.6549678749
  H        -0.4226725205        4.8561077035        3.8917406718
  H         1.2012988696        5.3281822396        4.2194942107
  H        -4.8817969531       -0.0758973053        7.1004545039
  H        -6.1865789247       -0.4028763629        5.9304721741
  H        -4.7435740195       -1.3953230457        5.8071347114
  H        -1.6544793456        2.3784763540        2.8910293055
  H        -3.2994814597        2.6245807407        3.5819061199
  H        -1.9589747664        3.7702516546        3.9848674491
  H         1.4453978515        0.0016147901        4.0297243318
  H        -0.2945111858        0.1560672612        3.7783797052
  H         0.9506358113        1.4384225887        3.1773403920
  H        -3.7689717745        1.9089438472       -7.5101608860
  H        -3.4921194917        2.8592047619       -5.9110872128
  H        -2.2514453779        2.9348857302       -7.1116126105
  H        -0.6517270779        2.6989544538       -3.7450994816
  H        -1.1295533642        2.1452104239       -2.1600732404
  H         0.0266576435        1.2022922503       -3.1777490222
  H         2.4423599990        1.2610526564       -6.5795701277
  H         1.5376951011        2.4661320156       -5.6739197571
  H         1.3621273524        0.8244885722       -5.3312868572
  H        -6.5832393945       -2.1456565777       -5.7370019099
  H        -7.3213655442       -0.9757372001       -6.8472036748
  H        -6.3706809153       -0.4397361442       -5.4679489435
  H        -0.9203281941       -0.5901269680       -8.4365363941
  H        -0.5181118173       -1.9665977205       -9.5610483902
  H        -1.1516724635       -2.2838268905       -7.9152983696
  H         4.9186272457       -0.9633321724        7.2078639745
  H         3.2725375566       -1.7471654838        6.7946298037
  H         3.4030293651       -0.5050509424        8.1311235035
  H        -0.8952931892       -1.0485835507        1.9921793656
  H        -1.7207803653        0.2757420913        2.8940894718
  H        -2.6636331258       -0.9193062821        2.0947608447
  H         1.1243208634       -0.8831659367       -1.2102542563
  H         2.6304245066       -0.7571753204       -0.5259539919
  H         1.3990996106       -0.7420078791        0.7438453212
  H         4.3536552613       -5.8094059896        7.9189524464
  H         5.2156650160       -5.6926213574        6.3454134956
  H         5.4061077710       -4.3521122615        7.5293174531
  H         9.9215934430       -8.2862885626       11.9342090706
  H        10.1797655286       -8.8384233222       13.5700949632
  H         8.6907608037       -7.9694386458       13.0987188514
  H        -6.1093172409       -3.7883942700        6.2348646153
  H        -6.5837675413       -5.0150474402        7.2441643147
  H        -4.9626975885       -4.2574156474        7.6558897064
  H         0.5986244639       -4.8304133819        1.2779446030
  H        -0.1184181054       -3.0885702009        0.8661112232
  H        -0.6806076847       -4.6944535989        0.0846618320
  H        -3.2177942038       -1.4528997694       -0.0902480583
  H        -3.4970252999       -2.3157330456       -1.6305037944
  H        -2.1574598003       -2.8338751252       -0.6101794549
  H         6.6702773818       -6.8964305768        0.6782979098
  H         7.5325719110       -5.5196740532        0.0001935407
  H         5.8392492097       -5.6067212136       -0.1183798490
  H         5.6400945779      -10.2988164282       -3.6494988825
  H         5.6454397859       -9.6208656952       -1.9020431444
  H         6.3258775612       -8.7043338008       -3.2467527653
  H        -8.4844385964       -7.4072175091        3.0119637187
  H        -8.5322652099       -7.2232199082        4.7592162981
  H        -8.6548139358       -5.8400033721        3.7430565910
  H        -4.8091332729      -10.3607221185        1.6478578216
  H        -5.8155054441       -8.9513524042        0.9969142898
  H        -4.2300872623       -8.6404544541        1.8216474950
     414
 i =     5002, time =     2501.000, E =     -2900.6566398115
 Zr        -0.8053196440       -6.1578396940        6.7643520855
 Zr         6.8348134274        4.3730704537       -0.5367305590
 Zr        -0.4764610797       10.0362723716        6.8877592732
 Zr        -2.4569918337       -8.7123899667       -6.3125174745
 Zr         4.8581774724        1.9714254880       -2.3745885377
 Zr         6.7627289209       -0.6128138859       -0.5942070566
 Zr         5.1364133430        1.8386623507        1.3484736126
 Zr        -2.4391424301       -8.8059125427        5.0031200305
 Zr        -6.0708572654        1.8652484211       -2.4547008238
 Zr         1.0646017334       -8.5721693667       -6.2858185177
 Zr        -5.9760738808        1.8102720036        1.0725832950
 Zr         1.0198601322       -8.4566200509        4.9525992833
  O        -0.5707803839       11.0713942306        4.8320855863
  O        -3.2032062244       -6.8494644995       -5.4166185243
  O        -5.5756510299        4.0010229136        2.1560274455
  O        -5.8433783406        3.2044601502       -0.6233066006
  O        -2.1977871768        8.8484461962        5.5983060611
  O        -4.5747855497       -9.2243835387        5.7397695498
  O        -4.6533669945       -9.0781575560       -6.9525766662
  O         3.1509424536       -8.4021416174        5.6263597855
  O         3.1849768856       -8.7013865495       -7.0469758853
  O        -3.1142912187       -7.0106981119        4.1041794691
  O        -2.0561461282       -5.3115845227        5.1836321609
  O        -6.2907558869       -1.8971746229        0.4643059004
  O        -5.0185180941       -0.4235431937        1.6114493039
  O         1.2608367615       -7.0635507655        6.7720519366
  O         2.1216760813       10.7001970883        4.3727861884
  O         1.9341157072       -6.3969260716       -5.8014440585
  O         0.5100516285       -4.8312838638       -6.6965488617
  O         6.9072640830        2.9164340994        1.0208148646
  O        -0.4826973789       11.1627146010       -6.1111469283
  O        -5.4778427388        3.9950285307       -3.3692372769
  O        -6.3712134105        0.7042523247       -0.6246232283
  O        -6.5628928836        5.6739442247       -2.1772694574
  O         5.4431394267       -1.6682404645        0.7474845499
  O         1.1354054426        9.0599629329       -6.9012653685
  O        -0.8095687662       -7.5440166266       -6.6971417392
  O        -3.2136384940       10.4504122617        4.2966004476
  O        -6.4540269070        5.4973814538        0.6858698200
  O         4.6481483143        4.0789458235        2.3550256966
  O        -1.6506753672       -8.7516178454        2.7219572897
  O        -6.7576139280        1.7452725975       -4.4612415413
  O        -1.6421628361        8.8752695784       -6.7136677467
  O        -2.0196039781       11.4258980414        6.9675052241
  O         4.1256681488       -0.0408129050       -3.1828730517